44
  This energy is 0 and Call times are: 242
C	2.42752	-2.45082	-0.461869
C	1.92853	-1.21628	0.184712
O	2.4999	-0.733236	1.15249
H	3.32765	-2.81196	0.0814787
H	2.70336	-2.24531	-1.51753
H	1.64795	-3.24101	-0.430847
N	0.830583	-0.671379	-0.344417
C	0.202383	0.505962	0.201289
C	-1.27909	0.443339	-0.119451
O	-1.72277	-0.413288	-0.881717
H	0.353286	-1.09895	-1.10681
H	0.299664	0.495442	1.27974
C	0.829924	1.78886	-0.386593
H	0.72104	1.80516	-1.492
H	0.364096	2.70252	0.0361899
H	1.91544	1.80963	-0.146654
N	-2.08456	1.35124	0.466175
C	-3.50856	1.36547	0.224938
H	-1.70759	2.03403	1.08323
H	-3.99614	2.18546	0.79687
H	-3.96919	0.399674	0.535333
H	-3.72229	1.51767	-0.857787
C	29.7568	2.02495	0.641982
C	29.1529	0.742069	0.216989
O	29.8294	-0.134623	-0.302768
H	30.8402	2.02137	0.392508
H	29.6409	2.15795	1.73817
H	29.2692	2.87113	0.113546
N	27.8423	0.603506	0.430662
C	27.106	-0.570253	0.0323423
C	25.6726	-0.157904	-0.244917
O	25.2761	0.971002	0.0380122
H	27.2974	1.34199	0.817372
H	27.5167	-0.952302	-0.89395
C	27.1549	-1.65219	1.13337
H	26.7241	-1.26417	2.08093
H	26.6031	-2.56638	0.832871
H	28.2135	-1.93287	1.32535
N	24.8597	-1.06786	-0.816914
C	23.4813	-0.763561	-1.12293
H	25.1999	-1.97481	-1.04226
H	22.9794	-1.63972	-1.58946
H	23.4163	0.0950691	-1.8299
H	22.924	-0.491695	-0.197403
