44
  This energy is 0 and Call times are: 214
C	-1.2952	3.08323	-0.963761
C	-0.819116	1.71589	-1.27178
O	-0.994552	1.21815	-2.37536
H	-1.80887	3.50296	-1.85587
H	-0.437072	3.73741	-0.702246
H	-2.01165	3.05702	-0.115757
N	-0.197276	1.06749	-0.284228
C	0.283616	-0.284932	-0.419344
C	0.263359	-0.933353	0.95204
O	0.038018	-0.267013	1.96047
H	-0.0982743	1.47038	0.621171
H	-0.395596	-0.844186	-1.05064
C	1.7115	-0.306561	-1.00748
H	2.41083	0.258153	-0.354734
H	2.08771	-1.34297	-1.12934
H	1.70402	0.179984	-2.00727
N	0.491865	-2.2597	1.02
C	0.486876	-2.96395	2.28102
H	0.668236	-2.7826	0.192629
H	0.69443	-4.04595	2.12801
H	-0.503	-2.86448	2.78254
H	1.2634	-2.55106	2.96488
C	21.6804	-0.301349	1.0011
C	23.1318	-0.482384	1.22875
O	23.5655	-0.799208	2.32782
H	21.1343	-0.479085	1.95299
H	21.3194	-1.02401	0.239376
H	21.4734	0.733558	0.655881
N	23.9275	-0.279175	0.176151
C	25.3639	-0.375536	0.252975
C	25.9566	0.547659	-0.79488
O	25.2402	1.08975	-1.6343
H	23.5631	0.0182275	-0.701684
H	25.6946	-0.0194849	1.22071
C	25.8325	-1.82884	0.0215634
H	25.5026	-2.191	-0.975448
H	26.9359	-1.91864	0.0919728
H	25.3804	-2.48774	0.794744
N	27.2878	0.755261	-0.764314
C	27.9397	1.62209	-1.71813
H	27.8503	0.31096	-0.0749322
H	29.0349	1.66298	-1.52794
H	27.5333	2.6572	-1.65
H	27.7776	1.25527	-2.75751
