16
	Energy:      34.2181704
C 19.8247 1.32682 -0.411346
 O 19.5872 2.40132 -0.442484
 N 20.8063 0.795896 -1.17275
 C 21.1356 -0.515653 -1.08925
 H 21.3302 1.40594 -1.78113
 N 22.261 -1.00345 -1.79142
 H 22.3531 -0.507079 -2.74593
 H 22.1585 -2.06721 -1.94994
 N 20.4637 -1.37007 -0.286842
 C 19.4606 -0.883412 0.46307
 C 19.1374 0.463785 0.436549
 N 18.1727 0.676474 1.35105
 C 17.8865 -0.499485 1.94775
 N 18.68 -1.44379 1.40253
 H 17.1369 -0.657166 2.71531
 H 18.6913 -2.41851 1.65987
