6
	Energy:     -41.8097008
C          0.16973       -0.18474        0.41331
O          0.99323        0.59279       -0.10041
N         -1.13036       -0.06407       -0.10951
H          0.43330       -0.97990        1.10461
H         -1.55339       -0.96140       -0.29570
H         -1.04152        0.50156       -0.94773
